REMARK  Name = 
REMARK  8 active torsions:
REMARK  status: ('A' for Active; 'I' for Inactive)
REMARK    1  A    between atoms: C_1  and  O_2
REMARK    2  A    between atoms: O_2  and  C_3
REMARK    3  A    between atoms: C_4  and  O_22
REMARK    4  A    between atoms: N_13  and  C_14
REMARK    5  A    between atoms: O_22  and  C_23
REMARK    6  A    between atoms: C_23  and  C_24
REMARK    7  A    between atoms: C_24  and  C_25
REMARK    8  A    between atoms: C_25  and  N_26
REMARK                            x       y       z     vdW  Elec       q    Type
REMARK                         _______ _______ _______ _____ _____    ______ ____
ROOT
ATOM      1  C   UNL     1       2.320   2.523   2.156  1.00  0.00    +0.164 A 
ATOM      2  C   UNL     1       2.741   1.307   2.686  1.00  0.00    +0.163 A 
ATOM      3  C   UNL     1       2.962   1.236   4.066  1.00  0.00    +0.062 A 
ATOM      4  C   UNL     1       2.694   2.334   4.926  1.00  0.00    +0.044 A 
ATOM      5  C   UNL     1       2.173   3.512   4.379  1.00  0.00    +0.080 A 
ATOM      6  C   UNL     1       2.005   3.591   3.005  1.00  0.00    +0.078 A 
ATOM      7  N   UNL     1       1.833   4.568   5.118  1.00  0.00    -0.235 NA
ATOM      8  C   UNL     1       2.023   4.463   6.437  1.00  0.00    +0.223 A 
ATOM      9  N   UNL     1       2.526   3.403   7.074  1.00  0.00    -0.220 NA
ATOM     10  C   UNL     1       2.888   2.349   6.323  1.00  0.00    +0.134 A 
ATOM     11  N   UNL     1       3.484   1.232   6.953  1.00  0.00    -0.299 N 
ATOM     12  H   UNL     1       4.288   0.893   6.440  1.00  0.00    +0.154 HD
ENDROOT
BRANCH  11  13
ATOM     13  C   UNL     1       3.472   0.848   8.308  1.00  0.00    +0.034 A 
ATOM     14  C   UNL     1       4.488   0.004   8.787  1.00  0.00    +0.046 A 
ATOM     15  C   UNL     1       4.505  -0.410  10.122  1.00  0.00    +0.078 A 
ATOM     16  C   UNL     1       3.499  -0.000  10.989  1.00  0.00    +0.142 A 
ATOM     17  C   UNL     1       2.473   0.818  10.533  1.00  0.00    +0.041 A 
ATOM     18  C   UNL     1       2.460   1.235   9.199  1.00  0.00    +0.026 A 
ATOM     19  F   UNL     1       3.494  -0.390  12.272  1.00  0.00    -0.204 F 
ATOM     20 CL   UNL     1       5.779  -1.431  10.671  1.00  0.00    -0.081 Cl
ENDBRANCH  11  13
BRANCH   1  22
ATOM     21  C   UNL     1       3.332   3.325   0.265  1.00  0.00    +0.277 C 
ATOM     22  O   UNL     1       2.149   2.727   0.814  1.00  0.00    -0.491 OA
ENDBRANCH   1  22
BRANCH   2  23
ATOM     23  O   UNL     1       2.996   0.136   2.039  1.00  0.00    -0.488 OA
BRANCH  23  24
ATOM     24  C   UNL     1       2.353  -0.196   0.813  1.00  0.00    +0.234 C 
BRANCH  24  25
ATOM     25  C   UNL     1       1.106  -1.053   1.041  1.00  0.00    +0.092 C 
BRANCH  25  26
ATOM     26  C   UNL     1      -0.053  -0.369   1.766  1.00  0.00    +0.134 C 
BRANCH  26  27
ATOM     27  N   UNL     1      -1.109   0.153   0.808  1.00  0.00    +0.239 N 
ATOM     28  C   UNL     1      -2.429   0.414   1.547  1.00  0.00    +0.160 C 
ATOM     29  C   UNL     1      -3.484   0.923   0.560  1.00  0.00    +0.210 C 
ATOM     30  O   UNL     1      -3.039   2.113  -0.096  1.00  0.00    -0.369 OA
ATOM     31  C   UNL     1      -1.842   1.887  -0.846  1.00  0.00    +0.210 C 
ATOM     32  C   UNL     1      -0.699   1.422   0.063  1.00  0.00    +0.160 C 
ATOM     33  H   UNL     1      -1.301  -0.577   0.110  1.00  0.00    +0.203 HD
ENDBRANCH  26  27
ENDBRANCH  25  26
ENDBRANCH  24  25
ENDBRANCH  23  24
ENDBRANCH   2  23
TORSDOF 7
