REMARK  Name = 
REMARK  8 active torsions:
REMARK  status: ('A' for Active; 'I' for Inactive)
REMARK    1  A    between atoms: C_1  and  O_2
REMARK    2  A    between atoms: O_2  and  C_3
REMARK    3  A    between atoms: C_4  and  O_22
REMARK    4  A    between atoms: N_13  and  C_14
REMARK    5  A    between atoms: O_22  and  C_23
REMARK    6  A    between atoms: C_23  and  C_24
REMARK    7  A    between atoms: C_24  and  C_25
REMARK    8  A    between atoms: C_25  and  N_26
REMARK                            x       y       z     vdW  Elec       q    Type
REMARK                         _______ _______ _______ _____ _____    ______ ____
ROOT
ATOM      1  C   UNL     1       2.576  -2.077   2.454  1.00  0.00    +0.164 A 
ATOM      2  C   UNL     1       2.769  -2.690   1.220  1.00  0.00    +0.163 A 
ATOM      3  C   UNL     1       2.972  -4.076   1.204  1.00  0.00    +0.062 A 
ATOM      4  C   UNL     1       2.921  -4.860   2.386  1.00  0.00    +0.044 A 
ATOM      5  C   UNL     1       2.630  -4.232   3.601  1.00  0.00    +0.080 A 
ATOM      6  C   UNL     1       2.470  -2.854   3.616  1.00  0.00    +0.078 A 
ATOM      7  N   UNL     1       2.501  -4.897   4.749  1.00  0.00    -0.235 NA
ATOM      8  C   UNL     1       2.673  -6.222   4.698  1.00  0.00    +0.223 A 
ATOM      9  N   UNL     1       2.971  -6.931   3.607  1.00  0.00    -0.220 NA
ATOM     10  C   UNL     1       3.121  -6.254   2.456  1.00  0.00    +0.134 A 
ATOM     11  N   UNL     1       3.497  -6.960   1.289  1.00  0.00    -0.299 N 
ATOM     12  H   UNL     1       4.213  -6.471   0.765  1.00  0.00    +0.154 HD
ENDROOT
BRANCH  11  13
ATOM     13  C   UNL     1       3.416  -8.335   0.994  1.00  0.00    +0.034 A 
ATOM     14  C   UNL     1       4.234  -8.862  -0.020  1.00  0.00    +0.046 A 
ATOM     15  C   UNL     1       4.173 -10.217  -0.357  1.00  0.00    +0.078 A 
ATOM     16  C   UNL     1       3.284 -11.057   0.304  1.00  0.00    +0.142 A 
ATOM     17  C   UNL     1       2.452 -10.555   1.296  1.00  0.00    +0.041 A 
ATOM     18  C   UNL     1       2.517  -9.199   1.634  1.00  0.00    +0.026 A 
ATOM     19  F   UNL     1       3.206 -12.359  -0.007  1.00  0.00    -0.204 F 
ATOM     20 CL   UNL     1       5.202 -10.824  -1.596  1.00  0.00    -0.081 Cl
ENDBRANCH  11  13
BRANCH   1  22
ATOM     21  C   UNL     1       3.571  -0.139   3.192  1.00  0.00    +0.277 C 
ATOM     22  O   UNL     1       2.414  -0.722   2.575  1.00  0.00    -0.491 OA
ENDBRANCH   1  22
BRANCH   2  23
ATOM     23  O   UNL     1       2.807  -2.141  -0.024  1.00  0.00    -0.488 OA
BRANCH  23  24
ATOM     24  C   UNL     1       2.312  -0.841  -0.316  1.00  0.00    +0.234 C 
BRANCH  24  25
ATOM     25  C   UNL     1       0.875  -0.899  -0.841  1.00  0.00    +0.092 C 
BRANCH  25  26
ATOM     26  C   UNL     1      -0.182  -1.233   0.211  1.00  0.00    +0.134 C 
BRANCH  26  27
ATOM     27  N   UNL     1      -0.983  -0.007   0.611  1.00  0.00    +0.239 N 
ATOM     28  C   UNL     1      -2.238  -0.404   1.397  1.00  0.00    +0.160 C 
ATOM     29  C   UNL     1      -3.039   0.852   1.757  1.00  0.00    +0.210 C 
ATOM     30  O   UNL     1      -2.243   1.773   2.509  1.00  0.00    -0.369 OA
ATOM     31  C   UNL     1      -1.090   2.201   1.778  1.00  0.00    +0.210 C 
ATOM     32  C   UNL     1      -0.190   1.011   1.427  1.00  0.00    +0.160 C 
ATOM     33  H   UNL     1      -1.305   0.456  -0.249  1.00  0.00    +0.203 HD
ENDBRANCH  26  27
ENDBRANCH  25  26
ENDBRANCH  24  25
ENDBRANCH  23  24
ENDBRANCH   2  23
TORSDOF 7
